                         Program Version 4.2.0 -  RELEASE  -
|  1> ! Opt NumFreq  B3LYP def2-TZVP   PAL16
|  2> %maxcore 3000
|  3>
|  4> # opt freq
|  5> *xyz 0 1
|  6> O        0.000000000      0.000000000      0.000000000
|  7> H        0.000000000      0.759337000      0.596043000
|  8> H        0.000000000     -0.759337000      0.596043000
|  9> *
| 10>
| 11>
| 12>
| 13>                          ****END OF INPUT****
 Total Charge           Charge          ....    0
 Multiplicity           Mult            ....    1
 Number of Electrons    NEL             ....   10
FINAL SINGLE POINT ENERGY       -76.425855018771
FINAL SINGLE POINT ENERGY       -76.425896356629
FINAL SINGLE POINT ENERGY       -76.425912520919
                    ***********************HURRAY********************

CARTESIAN COORDINATES (ANGSTROEM)
---------------------------------
  O      0.000000   -0.000000    0.007513
  H      0.000000    0.765051    0.592286
  H      0.000000   -0.765051    0.592286

 Multiplicity           Mult            ....    1
 Number of Electrons    NEL             ....   10
 Basis Dimension        Dim             ....   43

ORBITAL ENERGIES
----------------

  NO   OCC          E(Eh)            E(eV)
   0   2.0000     -19.123488      -520.3766
   1   2.0000      -1.010392       -27.4942
   2   2.0000      -0.531648       -14.4669
   3   2.0000      -0.387084       -10.5331
   4   2.0000      -0.312544        -8.5048
   5   0.0000       0.017070         0.4645
   6   0.0000       0.091246         2.4829
   7   0.0000       0.361107         9.8262
   8   0.0000       0.410563        11.1720
   9   0.0000       0.428301        11.6547

MULLIKEN ATOMIC CHARGES
-----------------------
   0 O :   -0.625822
   1 H :    0.312911
   2 H :    0.312911
Sum of atomic charges:   -0.0000000

LOEWDIN ATOMIC CHARGES
----------------------
   0 O :   -0.310238
   1 H :    0.155119
   2 H :    0.155119

  Mayer bond orders larger than 0.100000
B(  0-O ,  1-H ) :   0.9126 B(  0-O ,  2-H ) :   0.9126

FINAL SINGLE POINT ENERGY       -76.425912545290

DIPOLE MOMENT
-------------
                                X             Y             Z
Electronic contribution:      0.00000       0.00000      -0.16277
Nuclear contribution   :      0.00000       0.00000       0.97348
                        -----------------------------------------
Total Dipole Moment    :      0.00000       0.00000       0.81071
                        -----------------------------------------
Magnitude (a.u.)       :      0.81071
Magnitude (Debye)      :      2.06067

VIBRATIONAL FREQUENCIES
-----------------------

Scaling factor for frequencies =  1.000000000 (already applied!)

   0:         0.00 cm**-1
   1:         0.00 cm**-1
   2:         0.00 cm**-1
   3:         0.00 cm**-1
   4:         0.00 cm**-1
   5:         0.00 cm**-1
   6:      1613.10 cm**-1
   7:      3780.96 cm**-1
   8:      3885.26 cm**-1

IR SPECTRUM
-----------

 Mode    freq (cm**-1)   T**2         TX         TY         TZ
-------------------------------------------------------------------
   6:      1613.10   77.068803  (  0.000000   0.000000  -8.778884)
   7:      3780.96    5.261237  ( -0.000000   0.000002   2.293739)
   8:      3885.26   48.270273  (  0.000000   6.947681  -0.000001)

--------------------------
THERMOCHEMISTRY AT 298.15K
--------------------------

Temperature         ... 298.15 K
Pressure            ... 1.00 atm
Total Mass          ... 18.02 AMU

Throughout the following assumptions are being made:
  (1) The electronic state is orbitally nondegenerate
  (2) There are no thermally accessible electronically excited states
  (3) Hindered rotations indicated by low frequency modes are not
      treated as such but are treated as vibrations and this may
      cause some error
  (4) All equations used are the standard statistical mechanics
      equations for an ideal gas
  (5) All vibrations are strictly harmonic

freq.    1613.10  E(vib)   ...       0.00
freq.    3780.96  E(vib)   ...       0.00
freq.    3885.26  E(vib)   ...       0.00

------------
INNER ENERGY
------------

The inner energy is: U= E(el) + E(ZPE) + E(vib) + E(rot) + E(trans)
    E(el)   - is the total energy from the electronic structure calculation
              = E(kin-el) + E(nuc-el) + E(el-el) + E(nuc-nuc)
    E(ZPE)  - the the zero temperature vibrational energy from the frequency calculation
    E(vib)  - the the finite temperature correction to E(ZPE) due to population
              of excited vibrational states
    E(rot)  - is the rotational thermal energy
    E(trans)- is the translational thermal energy

Summary of contributions to the inner energy U:
Electronic energy                ...    -76.42591254 Eh
Zero point energy                ...      0.02113985 Eh      13.27 kcal/mol
Thermal vibrational correction   ...      0.00000306 Eh       0.00 kcal/mol
Thermal rotational correction    ...      0.00141627 Eh       0.89 kcal/mol
Thermal translational correction ...      0.00141627 Eh       0.89 kcal/mol
-----------------------------------------------------------------------
Total thermal energy                    -76.40193709 Eh

Summary of corrections to the electronic energy:
(perhaps to be used in another calculation)
Total thermal correction                  0.00283560 Eh       1.78 kcal/mol
Non-thermal (ZPE) correction              0.02113985 Eh      13.27 kcal/mol
-----------------------------------------------------------------------
Total correction                          0.02397545 Eh      15.04 kcal/mol

--------
ENTHALPY
--------

The enthalpy is H = U + kB*T
                kB is Boltzmann's constant
Total free energy                 ...    -76.40193709 Eh
Thermal Enthalpy correction       ...      0.00094421 Eh       0.59 kcal/mol
-----------------------------------------------------------------------
Total Enthalpy                    ...    -76.40099288 Eh

Note: Rotational entropy computed according to Herzberg
Infrared and Raman Spectra, Chapter V,1, Van Nostrand Reinhold, 1945
Point Group:  C2v, Symmetry Number:   2
Rotational constants in cm-1:    27.534237    14.286481     9.406040

Vibrational entropy computed according to the QRRHO of S. Grimme
Chem.Eur.J. 2012 18 9955

-------
ENTROPY
-------

The entropy contributions are T*S = T*(S(el)+S(vib)+S(rot)+S(trans))
     S(el)   - electronic entropy
     S(vib)  - vibrational entropy
     S(rot)  - rotational entropy
     S(trans)- translational entropy
The entropies will be listed as mutliplied by the temperature to get
units of energy

Electronic entropy                ...      0.00000000 Eh      0.00 kcal/mol
Vibrational entropy               ...      0.00000345 Eh      0.00 kcal/mol
Rotational entropy                ...      0.00497761 Eh      3.12 kcal/mol
Translational entropy             ...      0.01644380 Eh     10.32 kcal/mol
-----------------------------------------------------------------------
Final entropy term                ...      0.02142487 Eh     13.44 kcal/mol

In case the symmetry of your molecule has not been determined correctly
or in case you have a reason to use a different symmetry number we print
out the resulting rotational entropy values for sn=1,12 :
 --------------------------------------------------------
|  sn= 1 | S(rot)=       0.00563207 Eh      3.53 kcal/mol|
|  sn= 2 | S(rot)=       0.00497761 Eh      3.12 kcal/mol|
|  sn= 3 | S(rot)=       0.00459478 Eh      2.88 kcal/mol|
|  sn= 4 | S(rot)=       0.00432316 Eh      2.71 kcal/mol|
|  sn= 5 | S(rot)=       0.00411247 Eh      2.58 kcal/mol|
|  sn= 6 | S(rot)=       0.00394032 Eh      2.47 kcal/mol|
|  sn= 7 | S(rot)=       0.00379478 Eh      2.38 kcal/mol|
|  sn= 8 | S(rot)=       0.00366870 Eh      2.30 kcal/mol|
|  sn= 9 | S(rot)=       0.00355749 Eh      2.23 kcal/mol|
|  sn=10 | S(rot)=       0.00345801 Eh      2.17 kcal/mol|
|  sn=11 | S(rot)=       0.00336802 Eh      2.11 kcal/mol|
|  sn=12 | S(rot)=       0.00328587 Eh      2.06 kcal/mol|
 --------------------------------------------------------

-------------------
GIBBS FREE ENERGY
-------------------

The Gibbs free energy is G = H - T*S

Total enthalpy                    ...    -76.40099288 Eh
Total entropy correction          ...     -0.02142487 Eh    -13.44 kcal/mol
-----------------------------------------------------------------------
Final Gibbs free energy         ...    -76.42241775 Eh

For completeness - the Gibbs free energy minus the electronic energy
G-E(el)                           ...      0.00349479 Eh      2.19 kcal/mol

                             ****ORCA TERMINATED NORMALLY****
TOTAL RUN TIME: 0 days 0 hours 1 minutes 48 seconds 606 msec
