                         Program Version 4.2.0 -  RELEASE  -
|  1> !RHF DLPNO-CCSD(T) cc-pvtz aug-cc-pvtz/C TightSCF  NormalPNO
|  2> %maxcore 8000
|  3> %pal
|  4> nprocs 32
|  5> end
|  6> # RHF DLPNO ccsd(T)
|  7> *xyz 0 1
|  8> C 0.698984 3.695555 0.000000
|  9> C 1.380511 2.495679 0.000000
| 10> C 0.709343 1.254995 0.000000
| 11> C -0.709343 1.254995 0.000000
| 12> C -1.380511 2.495679 0.000000
| 13> C -0.698984 3.695555 0.000000
| 14> C 1.441529 -0.013189 0.000000
| 15> C -1.441529 -0.013189 0.000000
| 16> C -0.732186 -1.241806 0.000000
| 17> C 0.732186 -1.241806 0.000000
| 18> C -1.471066 -2.443397 0.000000
| 19> H -0.953963 -3.393647 0.000000
| 20> C -2.850953 -2.453116 0.000000
| 21> C -3.549937 -1.242440 0.000000
| 22> C -2.851577 -0.052282 0.000000
| 23> H 1.248457 4.630885 0.000000
| 24> H 2.462003 2.522980 0.000000
| 25> H -2.462003 2.522980 0.000000
| 26> H -1.248457 4.630885 0.000000
| 27> H -3.386235 -3.396638 0.000000
| 28> H -4.634692 -1.234246 0.000000
| 29> H -3.415966 0.870667 0.000000
| 30> C 1.471066 -2.443397 0.000000
| 31> C 2.851577 -0.052282 0.000000
| 32> C 2.850953 -2.453116 0.000000
| 33> C 3.549937 -1.242440 0.000000
| 34> H 0.953963 -3.393647 0.000000
| 35> H 3.386235 -3.396638 0.000000
| 36> H 4.634692 -1.234246 0.000000
| 37> H 3.415966 0.870667 0.000000
| 38> *
| 39>
| 40>
| 41>                          ****END OF INPUT****

CARTESIAN COORDINATES (ANGSTROEM)
---------------------------------
  C      0.698984    3.695555    0.000000
  C      1.380511    2.495679    0.000000
  C      0.709343    1.254995    0.000000
  C     -0.709343    1.254995    0.000000
  C     -1.380511    2.495679    0.000000
  C     -0.698984    3.695555    0.000000
  C      1.441529   -0.013189    0.000000
  C     -1.441529   -0.013189    0.000000
  C     -0.732186   -1.241806    0.000000
  C      0.732186   -1.241806    0.000000
  C     -1.471066   -2.443397    0.000000
  H     -0.953963   -3.393647    0.000000
  C     -2.850953   -2.453116    0.000000
  C     -3.549937   -1.242440    0.000000
  C     -2.851577   -0.052282    0.000000
  H      1.248457    4.630885    0.000000
  H      2.462003    2.522980    0.000000
  H     -2.462003    2.522980    0.000000
  H     -1.248457    4.630885    0.000000
  H     -3.386235   -3.396638    0.000000
  H     -4.634692   -1.234246    0.000000
  H     -3.415966    0.870667    0.000000
  C      1.471066   -2.443397    0.000000
  C      2.851577   -0.052282    0.000000
  C      2.850953   -2.453116    0.000000
  C      3.549937   -1.242440    0.000000
  H      0.953963   -3.393647    0.000000
  H      3.386235   -3.396638    0.000000
  H      4.634692   -1.234246    0.000000
  H      3.415966    0.870667    0.000000

 Total Charge           Charge          ....    0
 Multiplicity           Mult            ....    1
 Number of Electrons    NEL             ....  120
 Basis Dimension        Dim             ....  708

ORBITAL ENERGIES
----------------

  NO   OCC          E(Eh)            E(eV)
   0   2.0000     -11.250502      -306.1417
   1   2.0000     -11.250065      -306.1298
   2   2.0000     -11.250065      -306.1298
   3   2.0000     -11.249067      -306.1027
   4   2.0000     -11.249067      -306.1027
   5   2.0000     -11.248594      -306.0898
   6   2.0000     -11.236136      -305.7508
   7   2.0000     -11.236136      -305.7508
   8   2.0000     -11.236133      -305.7507
   9   2.0000     -11.235731      -305.7398
  10   2.0000     -11.235727      -305.7397
  11   2.0000     -11.235727      -305.7397
  12   2.0000     -11.234817      -305.7149
  13   2.0000     -11.234817      -305.7149
  14   2.0000     -11.234813      -305.7148
  15   2.0000     -11.234056      -305.6942
  16   2.0000     -11.234054      -305.6942
  17   2.0000     -11.234054      -305.6942
  18   2.0000      -1.193421       -32.4746
  19   2.0000      -1.146549       -31.1992
  20   2.0000      -1.146549       -31.1992
  21   2.0000      -1.070747       -29.1365
  22   2.0000      -1.049257       -28.5517
  23   2.0000      -1.049257       -28.5517
  24   2.0000      -0.996679       -27.1210
  25   2.0000      -0.982408       -26.7327
  26   2.0000      -0.982408       -26.7327
  27   2.0000      -0.871031       -23.7020
  28   2.0000      -0.854270       -23.2459
  29   2.0000      -0.854270       -23.2459
  30   2.0000      -0.802037       -21.8245
  31   2.0000      -0.802036       -21.8245
  32   2.0000      -0.761257       -20.7149
  33   2.0000      -0.733810       -19.9680
  34   2.0000      -0.680670       -18.5220
  35   2.0000      -0.680670       -18.5220
  36   2.0000      -0.667420       -18.1614
  37   2.0000      -0.646824       -17.6010
  38   2.0000      -0.646824       -17.6010
  39   2.0000      -0.600799       -16.3486
  40   2.0000      -0.600799       -16.3486
  41   2.0000      -0.590888       -16.0789
  42   2.0000      -0.590888       -16.0789
  43   2.0000      -0.583390       -15.8749
  44   2.0000      -0.582722       -15.8567
  45   2.0000      -0.555772       -15.1233
  46   2.0000      -0.535967       -14.5844
  47   2.0000      -0.514345       -13.9960
  48   2.0000      -0.512874       -13.9560
  49   2.0000      -0.512874       -13.9560
  50   2.0000      -0.496077       -13.4989
  51   2.0000      -0.496077       -13.4989
  52   2.0000      -0.467625       -12.7247
  53   2.0000      -0.467625       -12.7247
  54   2.0000      -0.395383       -10.7589
  55   2.0000      -0.376064       -10.2332
  56   2.0000      -0.376064       -10.2332
  57   2.0000      -0.318880        -8.6772
  58   2.0000      -0.285900        -7.7797
  59   2.0000      -0.285900        -7.7797
  60   0.0000       0.082394         2.2421
  61   0.0000       0.082394         2.2421
  62   0.0000       0.090155         2.4532
  63   0.0000       0.145638         3.9630
  64   0.0000       0.148395         4.0380

MULLIKEN ATOMIC CHARGES
-----------------------
   0 C :   -0.174125
   1 C :   -0.157489
   2 C :    0.036232
   3 C :    0.036233
   4 C :   -0.157489
   5 C :   -0.174125
   6 C :    0.036233
   7 C :    0.036232
   8 C :    0.036229
   9 C :    0.036229
  10 C :   -0.157489
  11 H :    0.146019
  12 C :   -0.174126
  13 C :   -0.174125
  14 C :   -0.157490
  15 H :    0.149364
  16 H :    0.146019
  17 H :    0.146019
  18 H :    0.149364
  19 H :    0.149365
  20 H :    0.149364
  21 H :    0.146019
  22 C :   -0.157489
  23 C :   -0.157490
  24 C :   -0.174126
  25 C :   -0.174125
  26 H :    0.146019
  27 H :    0.149365
  28 H :    0.149364
  29 H :    0.146019
Sum of atomic charges:   -0.0000000

LOEWDIN ATOMIC CHARGES
----------------------
   0 C :    0.025339
   1 C :    0.045543
   2 C :   -0.018990
   3 C :   -0.018990
   4 C :    0.045543
   5 C :    0.025339
   6 C :   -0.018990
   7 C :   -0.018990
   8 C :   -0.018990
   9 C :   -0.018990
  10 C :    0.045543
  11 H :   -0.028135
  12 C :    0.025339
  13 C :    0.025339
  14 C :    0.045543
  15 H :   -0.023757
  16 H :   -0.028135
  17 H :   -0.028135
  18 H :   -0.023757
  19 H :   -0.023757
  20 H :   -0.023757
  21 H :   -0.028135
  22 C :    0.045543
  23 C :    0.045543
  24 C :    0.025339
  25 C :    0.025339
  26 H :   -0.028135
  27 H :   -0.023757
  28 H :   -0.023757
  29 H :   -0.028135

  Mayer bond orders larger than 0.100000
B(  0-C ,  1-C ) :   1.4342 B(  0-C ,  5-C ) :   1.2928 B(  0-C , 15-H ) :   0.9825
B(  1-C ,  2-C ) :   1.3245 B(  1-C , 16-H ) :   0.9707 B(  2-C ,  3-C ) :   1.3686
B(  2-C ,  6-C ) :   1.1476 B(  3-C ,  4-C ) :   1.3245 B(  3-C ,  7-C ) :   1.1476
B(  4-C ,  5-C ) :   1.4342 B(  4-C , 17-H ) :   0.9707 B(  5-C , 18-H ) :   0.9825
B(  6-C ,  9-C ) :   1.3686 B(  6-C , 23-C ) :   1.3245 B(  7-C ,  8-C ) :   1.3686
B(  7-C , 14-C ) :   1.3245 B(  8-C ,  9-C ) :   1.1476 B(  8-C , 10-C ) :   1.3245
B(  9-C , 22-C ) :   1.3245 B( 10-C , 11-H ) :   0.9707 B( 10-C , 12-C ) :   1.4342
B( 12-C , 13-C ) :   1.2928 B( 12-C , 19-H ) :   0.9825 B( 13-C , 14-C ) :   1.4342
B( 13-C , 20-H ) :   0.9825 B( 14-C , 21-H ) :   0.9707 B( 22-C , 24-C ) :   1.4342
B( 22-C , 26-H ) :   0.9707 B( 23-C , 25-C ) :   1.4342 B( 23-C , 29-H ) :   0.9707
B( 24-C , 25-C ) :   1.2928 B( 24-C , 27-H ) :   0.9825 B( 25-C , 28-H ) :   0.9825

E(0)                                       ...   -688.868878529
E(0)                                       ...   -688.868878529
E(CORR)(strong-pairs)                      ...     -2.814813817
E(CORR)(weak-pairs)                        ...     -0.022138535
E(CORR)(corrected)                         ...     -2.836952352
E(TOT)                                     ...   -691.705830881
E(CCSD(T))                                 ...   -691.857172770
FINAL SINGLE POINT ENERGY      -691.857172770092

DIPOLE MOMENT
-------------
                                X             Y             Z
Electronic contribution:     -0.00000      -0.00000       0.00000
Nuclear contribution   :     -0.00000       0.00000       0.00000
                        -----------------------------------------
Total Dipole Moment    :     -0.00000      -0.00000       0.00000
                        -----------------------------------------
Magnitude (a.u.)       :      0.00000
Magnitude (Debye)      :      0.00000

Rotational constants in cm-1:     0.017117     0.017117     0.008559
Rotational constants in MHz :   513.159999   513.159948   256.579987

                             ****ORCA TERMINATED NORMALLY****
TOTAL RUN TIME: 0 days 2 hours 7 minutes 18 seconds 496 msec
